 # Fcc Al oriented X=[1-12] Y=[-111] Z=[110].
 
         600  atoms
           1  atom types
 
      0.000000000000      49.573820357060  xlo xhi
      0.000000000000      70.078775670000  ylo yhi
      0.000000000000       2.859762720370  zlo zhi
      0.000000000000       0.082554237757       0.000000000000  xy xz yz
 
Masses
 
            1   26.98153860             # Al
 
Atoms # atomic
 
         1    1       -0.028835894751      -0.000000000000      -0.998904708689
         2    1        3.273772308467       2.335958955404      -1.079040436284
         3    1        1.621775008211       4.671918611596      -1.062977091889
         4    1        0.837760627894       2.335958955404       0.399415194807
         5    1        4.140373569312       4.671918611596       0.319460776168
         6    1        2.489699801298       0.000000000000       0.381355450056
         7    1        4.925723245025      -0.000000000000      -1.096692693445
         8    1        8.228494260060       2.335958955404      -1.171188454198
         9    1        6.576472838281       4.671918611596      -1.155960703872
        10    1        5.792386081838       2.335958955404       0.303924400249
        11    1        9.095182612324       4.671918611596       0.230329693533
        12    1        7.444343347830       0.000000000000       0.286491401096
        13    1        9.880451119059      -0.000000000000      -1.188635551982
        14    1       13.183407720974       2.335958955404      -1.256702394554
        15    1       11.531394256598       4.671918611596      -1.241198991699
        16    1       10.747204928165       2.335958955404       0.215132914437
        17    1       14.050214144785       4.671918611596       0.148905871613
        18    1       12.399153350947       0.000000000000       0.197393577502
        19    1       14.835338520076      -0.000000000000      -1.275052233635
        20    1       18.138490045755       2.335958955404      -1.336366718862
        21    1       16.486529350048       4.671918611596      -1.319035355677
        22    1       15.702207453544       2.335958955404       0.132704257690
        23    1       19.005441292815       4.671918611596       0.074258371850
        24    1       17.354110577164       0.000000000000       0.113395711755
        25    1       19.790355036747      -0.000000000000      -1.356996217796
        26    1       23.093688824021       2.335958955404      -1.411996976085
        27    1       21.441831842854       4.671918611596      -1.391072835798
        28    1       20.657356421059       2.335958955404       0.055348505435
        29    1       23.960797570532       4.671918611596       0.004084055739
        30    1       22.309173017106       0.000000000000       0.033042556400
        31    1       24.745447631276      -0.000000000000      -1.436304787622
        32    1       28.048925766285       2.335958955404      -1.486305193599
        33    1       26.397216541518       4.671918611596      -1.460262621398
        34    1       25.612585166513       2.335958955404      -0.019243657919
        35    1       28.916183198757       4.671918611596      -0.065073528933
        36    1       27.264278320034      -0.000000000000      -0.045825781553
        37    1       29.700547466637      -0.000000000000      -1.515362527660
        38    1       33.004113094278       2.335958955404      -1.562332099910
        39    1       31.352575537747       4.671918611596      -1.530342765523
        40    1       30.567807992829       2.335958955404      -0.094040866261
        41    1       33.871489997592       4.671918611596      -0.136961843831
        42    1       32.219354827218      -0.000000000000      -0.125691633340
        43    1       34.655584104252      -0.000000000000      -1.596609501853
        44    1       37.959175264268       2.335958955404      -1.642694606689
        45    1       36.307808285430       4.671918611596      -1.604796287581
        46    1       35.522940690555       2.335958955404      -0.171960220553
        47    1       38.826631643372       4.671918611596      -0.214571228441
        48    1       37.174337198631      -0.000000000000      -0.208818443960
        49    1       39.610500509049      -0.000000000000      -1.682021463070
        50    1       42.914063892867       2.335958955404      -1.729068763671
        51    1       41.262846977820       4.671918611596      -1.685972082280
        52    1       40.477920212195       2.335958955404      -0.255185750182
        53    1       43.781560516336       4.671918611596      -0.299551279694
        54    1       42.129178881937      -0.000000000000      -0.296818833610
        55    1       44.565261631803      -0.000000000000      -1.772812552171
        56    1       47.868759976915       2.335958955404      -1.822112859636
        57    1       46.217663508501       4.671918611596      -1.774843784436
        58    1       45.432713321413       2.335958955404      -0.344868795619
        59    1       48.736265668968       4.671918611596      -0.392281230724
        60    1       47.083856278182      -0.000000000000      -0.390510294062
        61    1       -0.030261964723       7.007877567000      -1.048305222240
        62    1        3.272254824537       9.343836522404      -1.131607622291
        63    1        1.620073523268      11.679796178596      -1.121918260035
        64    1        0.836206999242       9.343836522404       0.345595918888
        65    1        4.138704610739      11.679796178596       0.261646354534
        66    1        2.488311553551       7.007877567000       0.333265136795
        67    1        4.924391054907       7.007877567000      -1.142841113428
        68    1        8.227117770513       9.343836522404      -1.218871451455
        69    1        6.574861967346      11.679796178596      -1.211762910663
        70    1        5.790926295890       9.343836522404       0.253355931005
        71    1        9.093661037832      11.679796178596       0.177620806284
        72    1        7.443088386376       7.007877567000       0.243018260540
        73    1        9.879297204818       7.007877567000      -1.228608314370
        74    1       13.182288774231       9.343836522404      -1.295463847247
        75    1       11.529998644187      11.679796178596      -1.289544424392
        76    1       10.745941092956       9.343836522404       0.171352377987
        77    1       14.048985519784      11.679796178596       0.106345052561
        78    1       12.398126240840       7.007877567000       0.161813439249
        79    1       14.834464717317       7.007877567000      -1.305321649527
        80    1       18.137759993039       9.343836522404      -1.361656487125
        81    1       16.485510771922      11.679796178596      -1.354319937452
        82    1       15.701266848721       9.343836522404       0.100120750402
        83    1       19.004674183978      11.679796178596       0.047684941895
        84    1       17.353415628986       7.007877567000       0.089322000394
        85    1       19.789861448262       7.007877567000      -1.374094624710
        86    1       23.093455979793       9.343836522404      -1.420062936837
        87    1       21.441351277299      11.679796178596      -1.407720115143
        88    1       20.656864807271       9.343836522404       0.038318504045
        89    1       23.960627384145      11.679796178596      -0.001811373707
        90    1       22.308898052881       7.007877567000       0.023517516110
        91    1       24.745401397601       7.007877567000      -1.437906369136
        92    1       28.049229063125       9.343836522404      -1.475798682743
        93    1       26.397365542011      11.679796178596      -1.455101092859
        94    1       25.612621183276       9.343836522404      -0.017996000640
        95    1       28.916643664006      11.679796178596      -0.049122544615
        96    1       27.264462553850       7.007877567000      -0.039443734883
        97    1       29.700955313465       7.007877567000      -1.501234298904
        98    1       33.004902258305       9.343836522404      -1.534994655747
        99    1       31.353324535009      11.679796178596      -1.504396738911
       100    1       30.568365545163       9.343836522404      -0.074726686593
       101    1       33.872493056347      11.679796178596      -0.102214868849
       102    1       32.219971687343       7.007877567000      -0.104322971536
       103    1       34.656389310218       7.007877567000      -1.568716348598
       104    1       37.960336106461       9.343836522404      -1.602481853014
       105    1       36.309024250739      11.679796178596      -1.562674013141
       106    1       35.523932105860       9.343836522404      -0.137616586506
       107    1       38.828017437608      11.679796178596      -0.166565907329
       108    1       37.175306155881       7.007877567000      -0.175252779763
       109    1       39.611606867097       7.007877567000      -1.643696095594
       110    1       42.915465321224       9.343836522404      -1.680521860694
       111    1       41.264361351932      11.679796178596      -1.633512623535
       112    1       40.479217145049       9.343836522404      -0.210258677661
       113    1       43.783166467864      11.679796178596      -0.243919486164
       114    1       42.130396412474       7.007877567000      -0.254642338070
       115    1       44.566565629648       7.007877567000      -1.727640741157
       116    1       47.870289040728       9.343836522404      -1.769144534713
       117    1       46.219329451368      11.679796178596      -1.717133829934
       118    1       45.434190830105       9.343836522404      -0.293686392515
       119    1       48.737965671236      11.679796178596      -0.333391423917
       120    1       47.085224457820       7.007877567000      -0.343115160521
       121    1       -0.032138705708      14.015755134000      -1.113317437860
       122    1        3.270178154524      16.351714089404      -1.203545582670
       123    1        1.617789693302      18.687673745596      -1.201032451789
       124    1        0.834141782804      16.351714089404       0.274054721989
       125    1        4.136388437674      18.687673745596       0.181411764941
       126    1        2.486437538507      14.015755134000       0.268347350540
       127    1        4.922542956940      14.015755134000      -1.206861105775
       128    1        8.225106456213      16.351714089404      -1.288545423481
       129    1        6.572542213904      18.687673745596      -1.292121528165
       130    1        5.788864336217      16.351714089404       0.181927551746
       131    1        9.091379827312      18.687673745596       0.098597354801
       132    1        7.441296557377      14.015755134000       0.180947482464
       133    1        9.877599997835      14.015755134000      -1.287401289612
       134    1       13.180533353302      16.351714089404      -1.356273412768
       135    1       11.527814849318      18.687673745596      -1.365193298669
       136    1       10.744027867126      16.351714089404       0.105076290232
       137    1       14.046977101487      18.687673745596       0.036771401011
       138    1       12.396570098412      14.015755134000       0.107907083556
       139    1       14.833102878670      14.015755134000      -1.352497124694
       140    1       18.136538276176      16.351714089404      -1.403978001233
       141    1       16.483773940556      18.687673745596      -1.414485541604
       142    1       15.699739883437      16.351714089404       0.047225120647
       143    1       19.003316477171      18.687673745596       0.000652597853
       144    1       17.352304808883      14.015755134000       0.050842062743
       145    1       19.789056177903      14.015755134000      -1.401990008581
       146    1       23.093050885323      16.351714089404      -1.434095821104
       147    1       21.440476290712      18.687673745596      -1.438030540033
       148    1       20.656022193503      16.351714089404       0.009129506509
       149    1       23.960312646114      18.687673745596      -0.012714219078
       150    1       22.308443187286      14.015755134000       0.007760509497
       151    1       24.745324458702      14.015755134000      -1.440571610796
       152    1       28.049755156516      16.351714089404      -1.457574272855
       153    1       26.397641242620      18.687673745596      -1.445550543485
       154    1       25.612684105291      16.351714089404      -0.015816318092
       155    1       28.917483288485      18.687673745596      -0.020037099086
       156    1       27.264768359513      14.015755134000      -0.028850315838
       157    1       29.701624992616      14.015755134000      -1.478035932314
       158    1       33.006212920755      16.351714089404      -1.489591976089
       159    1       31.354653123286      18.687673745596      -1.458373090375
       160    1       30.569315843505      16.351714089404      -0.041807385966
       161    1       33.874208015793      18.687673745596      -0.042806930232
       162    1       32.220966468384      14.015755134000      -0.069862744963
       163    1       34.657657575288      14.015755134000      -1.524782357280
       164    1       37.962140118814      16.351714089404      -1.539989031155
       165    1       36.311017735799      18.687673745596      -1.493617664070
       166    1       35.525527374870      16.351714089404      -0.082354846271
       167    1       38.830192182880      18.687673745596      -0.091230520241
       168    1       37.176791258737      14.015755134000      -0.123807307086
       169    1       39.613253649950      14.015755134000      -1.586649863422
       170    1       42.917494279015      16.351714089404      -1.610236700180
       171    1       41.266638102047      18.687673745596      -1.554643685032
       172    1       40.481161862019      16.351714089404      -0.142891704820
       173    1       43.785485129940      18.687673745596      -0.163598674725
       174    1       42.132155457534      14.015755134000      -0.193707228965
       175    1       44.568395297382      14.015755134000      -1.664259190837
       176    1       47.872364857955      16.351714089404      -1.697236115683
       177    1       46.221646887513      18.687673745596      -1.636855485972
       178    1       45.436259788726      16.351714089404      -0.222015562572
       179    1       48.740252335289      18.687673745596      -0.254179056509
       180    1       47.087091265879      14.015755134000      -0.278447031552
       181    1       -0.034596225662      21.023632701000      -1.198448427390
       182    1        3.267345600574      23.359591656404      -1.301668131066
       183    1        1.614790512704      25.695551312596      -1.304927116662
       184    1        0.831429328759      23.359591656404       0.180092556398
       185    1        4.133215690094      25.695551312596       0.071504563338
       186    1        2.483899728777      21.023632701000       0.180435041582
       187    1        4.919942299495      21.023632701000      -1.296950523495
       188    1        8.222088211365      23.359591656404      -1.393100493360
       189    1        6.569199401291      25.695551312596      -1.407919955362
       190    1        5.785924791150      23.359591656404       0.080098722266
       191    1        9.087887016126      25.695551312596      -0.022397175466
       192    1        7.438663127551      21.023632701000       0.089722796139
       193    1        9.874981989966      21.023632701000      -1.378091743662
       194    1       13.177550520094      23.359591656404      -1.459601787428
       195    1       11.524222046789      25.695551312596      -1.489651630739
       196    1       10.740983201619      23.359591656404      -0.000394018108
       197    1       14.043385628906      25.695551312596      -0.087640860281
       198    1       12.394040289014      21.023632701000       0.020271914203
       199    1       14.830764463017      21.023632701000      -1.433502220156
       200    1       18.134150358525      23.359591656404      -1.486697896216
       201    1       16.480366483848      25.695551312596      -1.532523305999
       202    1       15.696956646563      23.359591656404      -0.049189034098
       203    1       19.000386821275      25.695551312596      -0.100833660651
       204    1       17.350292749118      21.023632701000      -0.018857732940
       205    1       19.787527497967      21.023632701000      -1.454945035607
       206    1       23.092173505489      23.359591656404      -1.464489150515
       207    1       21.438423634902      25.695551312596      -1.509136624034
       208    1       20.654271411297      23.359591656404      -0.051519368946
       209    1       23.959535307156      25.695551312596      -0.039642030830
       210    1       22.307549819173      21.023632701000      -0.023186670160
       211    1       24.745171030826      21.023632701000      -1.445886508409
       212    1       28.050884935200      23.359591656404      -1.418437590695
       213    1       26.398323382508      25.695551312596      -1.421920524310
       214    1       25.612822042690      23.359591656404      -0.011038026355
       215    1       28.919462212629      25.695551312596       0.048514845037
       216    1       27.265374159020      21.023632701000      -0.007864805043
       217    1       29.702916160708      21.023632701000      -1.433308557025
       218    1       33.008728538254      23.359591656404      -1.402448428545
       219    1       31.357537590643      25.695551312596      -1.358452208790
       220    1       30.571261249803      23.359591656404       0.025583465894
       221    1       33.877594099209      25.695551312596       0.074490441595
       222    1       32.222804550871      21.023632701000      -0.006189699030
       223    1       34.659883263129      21.023632701000      -1.447682267812
       224    1       37.965150634934      23.359591656404      -1.435701692262
       225    1       36.314603716873      25.695551312596      -1.369395634194
       226    1       35.528380554170      23.359591656404       0.016482185244
       227    1       38.833788771348      25.695551312596       0.033358960547
       228    1       37.179258725652      21.023632701000      -0.038331744747
       229    1       39.615846707452      21.023632701000      -1.496823715458
       230    1       42.920495468983      23.359591656404      -1.506272428682
       231    1       41.270139569044      25.695551312596      -1.433349308643
       232    1       40.484206383881      23.359591656404      -0.037426372467
       233    1       43.788838810818      25.695551312596      -0.047423759766
       234    1       42.134789729413      21.023632701000      -0.102453373060
       235    1       44.571013550437      21.023632701000      -1.573560243291
       236    1       47.875166199799      23.359591656404      -1.600194786376
       237    1       46.224831212500      25.695551312596      -1.526547231245
       238    1       45.439172810768      23.359591656404      -0.121105517659
       239    1       48.743262991752      25.695551312596      -0.149886856019
       240    1       47.089656907944      21.023632701000      -0.189570582190
       241    1       -0.037689230802      28.031510268000      -1.305593269790
       242    1        3.263685823443      30.367469223404      -1.428446531436
       243    1        1.611141259587      32.703428879596      -1.431340954480
       244    1        0.828059932031      30.367469223404       0.063373228410
       245    1        4.129200575582      32.703428879596      -0.067583085111
       246    1        2.480582932307      28.031510268000       0.065537840008
       247    1        4.916381769068      28.031510268000      -1.420290917121
       248    1        8.217718402571      30.367469223404      -1.544475112337
       249    1        6.564746213542      32.703428879596      -1.562182906089
       250    1        5.781932558196      30.367469223404      -0.058196285750
       251    1        9.082904826600      32.703428879596      -0.194985285522
       252    1        7.434844250241      28.031510268000      -0.042566996140
       253    1        9.870904462800      28.031510268000      -1.519341429923
       254    1       13.172324252360      30.367469223404      -1.640645014748
       255    1       11.518598757563      32.703428879596      -1.684448086129
       256    1       10.736194518401      30.367469223404      -0.166278872944
       257    1       14.036993028297      32.703428879596      -0.309087044095
       258    1       12.389736242925      28.031510268000      -0.128824617791
       259    1       14.826333628479      28.031510268000      -1.586990832931
       260    1       18.128390136586      30.367469223404      -1.686237840029
       261    1       16.473094521277      32.703428879596      -1.784431482127
       262    1       15.691344423733      30.367469223404      -0.243602138295
       263    1       18.992284248322      32.703428879596      -0.381515024816
       264    1       17.345965508591      28.031510268000      -0.168757743868
       265    1       19.783756300683      28.031510268000      -1.585583143330
       266    1       23.088961752682      30.367469223404      -1.575747532808
       267    1       21.430242506638      32.703428879596      -1.792539224013
       268    1       20.649043281965      30.367469223404      -0.232627083915
       269    1       23.954768793053      32.703428879596      -0.204758924986
       270    1       22.305057908774      28.031510268000      -0.109508979644
       271    1       24.744714695766      28.031510268000      -1.461694418799
       272    1       28.054827280628      30.367469223404      -1.281870737291
       273    1       26.402603553911      32.703428879596      -1.273651035695
       274    1       25.613366586953      30.367469223404       0.007825540501
       275    1       28.927576337397      32.703428879596       0.329596375799
       276    1       27.267124894170      28.031510268000       0.052782440346
       277    1       29.706274803095      28.031510268000      -1.316961770326
       278    1       33.014491099781      30.367469223404      -1.202827439055
       279    1       31.365682778094      32.703428879596      -1.076294635108
       280    1       30.576737997001      30.367469223404       0.215303556479
       281    1       33.884926295829      32.703428879596       0.328485186396
       282    1       32.226979224563      28.031510268000       0.138425241610
       283    1       34.664310522243      28.031510268000      -1.294317511360
       284    1       37.970261045226      30.367469223404      -1.258671884542
       285    1       36.321052129926      32.703428879596      -1.146016050598
       286    1       35.533902304986      30.367469223404       0.207761246878
       287    1       38.839459269214      32.703428879596       0.229790771249
       288    1       37.183630995388      28.031510268000       0.113128123757
       289    1       39.620021448838      28.031510268000      -1.352206429813
       290    1       42.924760195314      30.367469223404      -1.358537973074
       291    1       41.275160775354      32.703428879596      -1.259409617531
       292    1       40.488880079778      30.367469223404       0.124475204670
       293    1       43.793324209579      32.703428879596       0.107955013179
       294    1       42.138713302833      28.031510268000       0.033463198899
       295    1       44.574676195503      28.031510268000      -1.446682494765
       296    1       47.878744623032      30.367469223404      -1.476234567777
       297    1       46.228873099351      32.703428879596      -1.386532161746
       298    1       45.443072034816      30.367469223404       0.013967567286
       299    1       48.746934709528      32.703428879596      -0.022694819570
       300    1       47.093068971179      28.031510268000      -0.071373243034
       301    1       -0.041240684391      35.039387835000      -1.428619232506
       302    1        3.342096435331      37.375346790404       1.287776776457
       303    1        1.689833605148      39.711306446596       1.294641894246
       304    1        0.906882435080      37.375346790404       2.793864864833
       305    1        4.207450158825      39.711306446596       2.643062026815
       306    1        2.476667556523      35.039387835000      -0.070094757513
       307    1        4.912022525565      35.039387835000      -1.571299543666
       308    1        8.294961510965      37.375346790404       1.131304687626
       309    1        6.642440011112      39.711306446596       1.129209225090
       310    1        5.859830499187      37.375346790404       2.640267581075
       311    1        9.159881135383      39.711306446596       2.471552304683
       312    1        7.429933101113      35.039387835000      -0.212694194582
       313    1        9.865291468088      35.039387835000      -1.713781272902
       314    1       13.247514929492      37.375346790404       0.964036479768
       315    1       11.594615396448      39.711306446596       0.948845563186
       316    1       10.812573631480      37.375346790404       2.479571250937
       317    1       14.111665647867      39.711306446596       2.277648409836
       318    1       12.383207275923      35.039387835000      -0.354994672057
       319    1       14.818574334208      35.039387835000      -1.855780674557
       320    1       18.199152323720      37.375346790404       0.765036258973
       321    1       16.545765928709      39.711306446596       0.732979948942
       322    1       15.764808284979      37.375346790404       2.301260698482
       323    1       19.061716844145      39.711306446596       2.023700679534
       324    1       17.336506264061      35.039387835000      -0.496435590651
       325    1       19.771909088143      35.039387835000      -1.995982629550
       326    1       23.145791909160      37.375346790404       0.392906861015
       327    1       21.493808034699      39.711306446596       0.409435288622
       328    1       20.715128595689      37.375346790404       2.056635365684
       329    1       24.006318733428      39.711306446596       1.580983415177
       330    1       22.289954087582      35.039387835000      -0.632720700231
       331    1       24.726840383249      35.039387835000      -2.080878775365
       332    1       28.077362058900      37.375346790404      -0.501243109162
       333    1       26.434760504105      39.711306446596      -0.159701590273
       334    1       25.651827661078      37.375346790404       1.340156247638
       335    1       28.947116943636      39.711306446596       1.006502840858
       336    1       27.283711562836      35.039387835000       0.627361504893
       337    1       29.719319502003      35.039387835000      -0.865080138953
       338    1       33.025426861526      37.375346790404      -0.824001534918
       339    1       31.379090424231      39.711306446596      -0.611840142729
       340    1       30.591666696713      37.375346790404       0.732448891005
       341    1       33.894977234650      39.711306446596       0.676659924915
       342    1       32.237297505376      35.039387835000       0.495860978527
       343    1       34.672682472977      35.039387835000      -1.004304627048
       344    1       37.977266431082      37.375346790404      -1.015998196812
       345    1       36.329042533134      39.711306446596      -0.869220360432
       346    1       35.542460910850      37.375346790404       0.504240054700
       347    1       38.846072413469      39.711306446596       0.458876811170
       348    1       37.190607127325      35.039387835000       0.354788425970
       349    1       39.625970518550      35.039387835000      -1.146124607191
       350    1       42.929879633737      37.375346790404      -1.181195421702
       351    1       41.280793997505      39.711306446596      -1.064269075491
       352    1       40.494799041959      37.375346790404       0.329514071828
       353    1       43.798226773892      39.711306446596       0.277784824896
       354    1       42.143884221253      35.039387835000       0.212589069705
       355    1       44.579241270661      35.039387835000      -1.288543650428
       356    1       47.882769864472      37.375346790404      -1.336796112235
       357    1       46.233210865544      39.711306446596      -1.236267531071
       358    1       45.447579766975      37.375346790404       0.170119991840
       359    1       48.750823291509      39.711306446596       0.112009613362
       360    1       47.097150965356      35.039387835000       0.070031184987
       361    1        0.037756894732      42.047265402000       1.307937217109
       362    1        3.338198578382      44.383224357404       1.152751049183
       363    1        1.686359407466      46.719184013596       1.174292154679
       364    1        0.903332859600      44.383224357404       2.670903961720
       365    1        4.203668149412      46.719184013596       2.512049375969
       366    1        2.555299440186      42.047265402000       2.653793629594
       367    1        4.990207880786      42.047265402000       1.137120644266
       368    1        8.290143973390      44.383224357404       0.964420288523
       369    1        6.638305010511      46.719184013596       0.985968600621
       370    1        5.855516121436      44.383224357404       2.490813149776